
Host: Shuhangs-MacBook-Pro.local

Timers On : Thu Aug  1 15:57:56 2024
Timers Off: Thu Aug  1 15:59:16 2024

Wall Time:       79.85 seconds

                                                       Time (seconds)
Module                                       User      System        Wall        Calls

--------------------------------------------------------------------------------------

**************************************************************************************

Host: Shuhangs-MacBook-Pro.local

Timers On : Thu Aug  1 16:04:53 2024
Timers Off: Thu Aug  1 16:06:13 2024

Wall Time:       79.62 seconds

                                                       Time (seconds)
Module                                       User      System        Wall        Calls

--------------------------------------------------------------------------------------

**************************************************************************************

Host: Shuhangs-MacBook-Pro.local

Timers On : Thu Aug  1 16:20:37 2024
Timers Off: Thu Aug  1 16:23:41 2024

Wall Time:      183.83 seconds

                                                       Time (seconds)
Module                                       User      System        Wall        Calls

--------------------------------------------------------------------------------------

**************************************************************************************

Host: Shuhangs-MacBook-Pro.local

Timers On : Thu Aug  1 16:33:33 2024
Timers Off: Thu Aug  1 16:34:53 2024

Wall Time:       80.34 seconds

                                                       Time (seconds)
Module                                       User      System        Wall        Calls

--------------------------------------------------------------------------------------

**************************************************************************************

Host: Shuhangs-MacBook-Pro.local

Timers On : Thu Aug  1 16:35:29 2024
Timers Off: Thu Aug  1 16:37:23 2024

Wall Time:      114.48 seconds

                                                       Time (seconds)
Module                                       User      System        Wall        Calls

--------------------------------------------------------------------------------------

**************************************************************************************

Host: Shuhangs-MacBook-Pro.local

Timers On : Thu Aug  1 16:38:33 2024
Timers Off: Thu Aug  1 16:39:57 2024

Wall Time:       83.78 seconds

                                                       Time (seconds)
Module                                       User      System        Wall        Calls

--------------------------------------------------------------------------------------

**************************************************************************************

Host: Shuhangs-MacBook-Pro.local

Timers On : Thu Aug  1 16:55:05 2024
Timers Off: Thu Aug  1 16:58:25 2024

Wall Time:      199.88 seconds

                                                       Time (seconds)
Module                                       User      System        Wall        Calls

--------------------------------------------------------------------------------------

**************************************************************************************

Host: Shuhangs-MBP.hsd1.ga.comcast.net

Timers On : Sun Aug  4 12:29:45 2024
Timers Off: Sun Aug  4 13:43:10 2024

Wall Time:     4405.71 seconds

                                                       Time (seconds)
Module                                       User      System        Wall        Calls

--------------------------------------------------------------------------------------

**************************************************************************************

Host: Shuhangs-MacBook-Pro.local

Timers On : Mon Aug 12 11:20:57 2024
Timers Off: Mon Aug 12 11:20:59 2024

Wall Time:        1.86 seconds

                                                       Time (seconds)
Module                                       User      System        Wall        Calls

--------------------------------------------------------------------------------------

**************************************************************************************

Host: Shuhangs-MacBook-Pro.local

Timers On : Mon Aug 12 11:25:10 2024
Timers Off: Mon Aug 12 11:25:12 2024

Wall Time:        1.60 seconds

                                                       Time (seconds)
Module                                       User      System        Wall        Calls

--------------------------------------------------------------------------------------

**************************************************************************************

Host: Shuhangs-MacBook-Pro.local

Timers On : Mon Aug 12 12:32:01 2024
Timers Off: Mon Aug 12 12:32:05 2024

Wall Time:        3.87 seconds

                                                       Time (seconds)
Module                                       User      System        Wall        Calls

--------------------------------------------------------------------------------------

**************************************************************************************

Host: Shuhangs-MacBook-Pro.local

Timers On : Mon Aug 12 12:33:47 2024
Timers Off: Mon Aug 12 12:33:48 2024

Wall Time:        1.54 seconds

                                                       Time (seconds)
Module                                       User      System        Wall        Calls

--------------------------------------------------------------------------------------

**************************************************************************************

Host: Shuhangs-MacBook-Pro.local

Timers On : Mon Aug 12 12:34:55 2024
Timers Off: Mon Aug 12 12:34:57 2024

Wall Time:        1.47 seconds

                                                       Time (seconds)
Module                                       User      System        Wall        Calls

--------------------------------------------------------------------------------------

**************************************************************************************

Host: Shuhangs-MacBook-Pro.local

Timers On : Mon Aug 12 12:36:19 2024
Timers Off: Mon Aug 12 12:36:21 2024

Wall Time:        1.40 seconds

                                                       Time (seconds)
Module                                       User      System        Wall        Calls

--------------------------------------------------------------------------------------

**************************************************************************************

Host: Shuhangs-MacBook-Pro.local

Timers On : Mon Aug 12 12:36:45 2024
Timers Off: Mon Aug 12 12:36:49 2024

Wall Time:        3.69 seconds

                                                       Time (seconds)
Module                                       User      System        Wall        Calls

--------------------------------------------------------------------------------------

**************************************************************************************

Host: Shuhangs-MacBook-Pro.local

Timers On : Mon Aug 12 12:42:55 2024
Timers Off: Mon Aug 12 12:42:59 2024

Wall Time:        3.79 seconds

                                                       Time (seconds)
Module                                       User      System        Wall        Calls

--------------------------------------------------------------------------------------

**************************************************************************************

Host: Shuhangs-MacBook-Pro.local

Timers On : Mon Aug 12 12:48:51 2024
Timers Off: Mon Aug 12 12:48:55 2024

Wall Time:        3.79 seconds

                                                       Time (seconds)
Module                                       User      System        Wall        Calls

--------------------------------------------------------------------------------------

**************************************************************************************

Host: Shuhangs-MacBook-Pro.local

Timers On : Mon Aug 12 12:49:38 2024
Timers Off: Mon Aug 12 12:49:42 2024

Wall Time:        3.76 seconds

                                                       Time (seconds)
Module                                       User      System        Wall        Calls

--------------------------------------------------------------------------------------

**************************************************************************************

Host: Shuhangs-MacBook-Pro.local

Timers On : Mon Aug 12 12:50:49 2024
Timers Off: Mon Aug 12 12:50:53 2024

Wall Time:        3.69 seconds

                                                       Time (seconds)
Module                                       User      System        Wall        Calls

--------------------------------------------------------------------------------------

**************************************************************************************

Host: Shuhangs-MacBook-Pro.local

Timers On : Mon Aug 12 12:53:09 2024
Timers Off: Mon Aug 12 12:53:13 2024

Wall Time:        3.84 seconds

                                                       Time (seconds)
Module                                       User      System        Wall        Calls

--------------------------------------------------------------------------------------

**************************************************************************************

Host: Shuhangs-MacBook-Pro.local

Timers On : Mon Aug 12 12:57:36 2024
Timers Off: Mon Aug 12 12:57:40 2024

Wall Time:        3.89 seconds

                                                       Time (seconds)
Module                                       User      System        Wall        Calls

--------------------------------------------------------------------------------------

**************************************************************************************

Host: Shuhangs-MacBook-Pro.local

Timers On : Mon Aug 12 13:02:00 2024
Timers Off: Mon Aug 12 13:03:04 2024

Wall Time:       63.91 seconds

                                                       Time (seconds)
Module                                       User      System        Wall        Calls

--------------------------------------------------------------------------------------

**************************************************************************************

Host: Shuhangs-MacBook-Pro.local

Timers On : Mon Aug 12 13:21:46 2024
Timers Off: Mon Aug 12 13:22:46 2024

Wall Time:       60.45 seconds

                                                       Time (seconds)
Module                                       User      System        Wall        Calls

--------------------------------------------------------------------------------------

**************************************************************************************

Host: Shuhangs-MacBook-Pro.local

Timers On : Mon Aug 12 14:45:37 2024
Timers Off: Mon Aug 12 14:45:41 2024

Wall Time:        3.61 seconds

                                                       Time (seconds)
Module                                       User      System        Wall        Calls

--------------------------------------------------------------------------------------

**************************************************************************************

Host: Shuhangs-MacBook-Pro.local

Timers On : Mon Aug 12 14:46:58 2024
Timers Off: Mon Aug 12 14:47:00 2024

Wall Time:        1.57 seconds

                                                       Time (seconds)
Module                                       User      System        Wall        Calls

--------------------------------------------------------------------------------------

**************************************************************************************

Host: Shuhangs-MacBook-Pro.local

Timers On : Mon Aug 12 14:51:14 2024
Timers Off: Mon Aug 12 14:52:15 2024

Wall Time:       60.79 seconds

                                                       Time (seconds)
Module                                       User      System        Wall        Calls

--------------------------------------------------------------------------------------

**************************************************************************************

Host: Shuhangs-MacBook-Pro.local

Timers On : Mon Aug 12 14:57:33 2024
Timers Off: Mon Aug 12 15:46:46 2024

Wall Time:     2952.99 seconds

                                                       Time (seconds)
Module                                       User      System        Wall        Calls

--------------------------------------------------------------------------------------

**************************************************************************************

Host: Shuhangs-MacBook-Pro.local

Timers On : Tue Aug 13 10:59:50 2024
Timers Off: Tue Aug 13 11:01:24 2024

Wall Time:       93.20 seconds

                                                       Time (seconds)
Module                                       User      System        Wall        Calls

--------------------------------------------------------------------------------------

**************************************************************************************

Host: Shuhangs-MacBook-Pro.local

Timers On : Tue Aug 13 11:06:47 2024
Timers Off: Tue Aug 13 11:06:49 2024

Wall Time:        1.79 seconds

                                                       Time (seconds)
Module                                       User      System        Wall        Calls

--------------------------------------------------------------------------------------

**************************************************************************************

Host: Shuhangs-MacBook-Pro.local

Timers On : Tue Aug 13 11:07:10 2024
Timers Off: Tue Aug 13 11:07:14 2024

Wall Time:        4.76 seconds

                                                       Time (seconds)
Module                                       User      System        Wall        Calls

--------------------------------------------------------------------------------------

**************************************************************************************

Host: Shuhangs-MacBook-Pro.local

Timers On : Tue Aug 13 11:09:20 2024
Timers Off: Tue Aug 13 11:10:48 2024

Wall Time:       87.79 seconds

                                                       Time (seconds)
Module                                       User      System        Wall        Calls

--------------------------------------------------------------------------------------

**************************************************************************************

Host: Shuhangs-MacBook-Pro.local

Timers On : Tue Aug 13 11:15:25 2024
Timers Off: Tue Aug 13 11:31:33 2024

Wall Time:      968.65 seconds

                                                       Time (seconds)
Module                                       User      System        Wall        Calls

--------------------------------------------------------------------------------------

**************************************************************************************

Host: Shuhangs-MacBook-Pro.local

Timers On : Tue Aug 13 16:45:31 2024
Timers Off: Tue Aug 13 16:47:25 2024

Wall Time:      114.87 seconds

                                                       Time (seconds)
Module                                       User      System        Wall        Calls

--------------------------------------------------------------------------------------

**************************************************************************************

Host: Shuhangs-MacBook-Pro.local

Timers On : Tue Aug 13 16:54:54 2024
Timers Off: Tue Aug 13 16:55:03 2024

Wall Time:        8.28 seconds

                                                       Time (seconds)
Module                                       User      System        Wall        Calls

--------------------------------------------------------------------------------------

**************************************************************************************

Host: Shuhangs-MacBook-Pro.local

Timers On : Tue Aug 13 16:58:26 2024
Timers Off: Tue Aug 13 17:00:20 2024

Wall Time:      114.17 seconds

                                                       Time (seconds)
Module                                       User      System        Wall        Calls

--------------------------------------------------------------------------------------

**************************************************************************************

Host: Shuhangs-MacBook-Pro.local

Timers On : Tue Aug 13 17:02:08 2024
Timers Off: Tue Aug 13 17:04:05 2024

Wall Time:      116.41 seconds

                                                       Time (seconds)
Module                                       User      System        Wall        Calls

--------------------------------------------------------------------------------------

**************************************************************************************
