
Host: Shuhangs-MacBook-Pro.local

Timers On : Thu Aug  1 09:41:26 2024
Timers Off: Thu Aug  1 09:42:45 2024

Wall Time:       79.45 seconds

                                                       Time (seconds)
Module                                       User      System        Wall        Calls

--------------------------------------------------------------------------------------

**************************************************************************************

Host: Shuhangs-MacBook-Pro.local

Timers On : Thu Aug  1 09:44:13 2024
Timers Off: Thu Aug  1 09:44:15 2024

Wall Time:        1.66 seconds

                                                       Time (seconds)
Module                                       User      System        Wall        Calls

--------------------------------------------------------------------------------------

**************************************************************************************

Host: Shuhangs-MacBook-Pro.local

Timers On : Thu Aug  1 09:45:37 2024
Timers Off: Thu Aug  1 09:45:38 2024

Wall Time:        1.60 seconds

                                                       Time (seconds)
Module                                       User      System        Wall        Calls

--------------------------------------------------------------------------------------

**************************************************************************************

Host: Shuhangs-MacBook-Pro.local

Timers On : Thu Aug  1 09:46:18 2024
Timers Off: Thu Aug  1 09:46:20 2024

Wall Time:        1.66 seconds

                                                       Time (seconds)
Module                                       User      System        Wall        Calls

--------------------------------------------------------------------------------------

**************************************************************************************

Host: Shuhangs-MacBook-Pro.local

Timers On : Thu Aug  1 09:46:41 2024
Timers Off: Thu Aug  1 09:46:43 2024

Wall Time:        1.65 seconds

                                                       Time (seconds)
Module                                       User      System        Wall        Calls

--------------------------------------------------------------------------------------

**************************************************************************************

Host: Shuhangs-MacBook-Pro.local

Timers On : Thu Aug  1 09:47:32 2024
Timers Off: Thu Aug  1 09:47:34 2024

Wall Time:        1.66 seconds

                                                       Time (seconds)
Module                                       User      System        Wall        Calls

--------------------------------------------------------------------------------------

**************************************************************************************

Host: Shuhangs-MacBook-Pro.local

Timers On : Thu Aug  1 09:47:59 2024
Timers Off: Thu Aug  1 09:48:00 2024

Wall Time:        1.63 seconds

                                                       Time (seconds)
Module                                       User      System        Wall        Calls

--------------------------------------------------------------------------------------

**************************************************************************************

Host: Shuhangs-MacBook-Pro.local

Timers On : Thu Aug  1 09:48:15 2024
Timers Off: Thu Aug  1 09:48:17 2024

Wall Time:        1.54 seconds

                                                       Time (seconds)
Module                                       User      System        Wall        Calls

--------------------------------------------------------------------------------------

**************************************************************************************

Host: Shuhangs-MacBook-Pro.local

Timers On : Thu Aug  1 09:49:00 2024
Timers Off: Thu Aug  1 09:49:02 2024

Wall Time:        1.68 seconds

                                                       Time (seconds)
Module                                       User      System        Wall        Calls

--------------------------------------------------------------------------------------

**************************************************************************************

Host: Shuhangs-MacBook-Pro.local

Timers On : Thu Aug  1 09:49:11 2024
Timers Off: Thu Aug  1 09:50:35 2024

Wall Time:       83.37 seconds

                                                       Time (seconds)
Module                                       User      System        Wall        Calls

--------------------------------------------------------------------------------------

**************************************************************************************

Host: Shuhangs-MacBook-Pro.local

Timers On : Thu Aug  1 09:53:17 2024
Timers Off: Thu Aug  1 09:53:20 2024

Wall Time:        2.82 seconds

                                                       Time (seconds)
Module                                       User      System        Wall        Calls

--------------------------------------------------------------------------------------

**************************************************************************************

Host: Shuhangs-MacBook-Pro.local

Timers On : Thu Aug  1 09:54:14 2024
Timers Off: Thu Aug  1 09:54:16 2024

Wall Time:        1.49 seconds

                                                       Time (seconds)
Module                                       User      System        Wall        Calls

--------------------------------------------------------------------------------------

**************************************************************************************

Host: Shuhangs-MacBook-Pro.local

Timers On : Thu Aug  1 09:54:34 2024
Timers Off: Thu Aug  1 09:54:35 2024

Wall Time:        1.46 seconds

                                                       Time (seconds)
Module                                       User      System        Wall        Calls

--------------------------------------------------------------------------------------

**************************************************************************************
